% Model:              Drive_Cycle_10_NEDC_NM.mph
% Version:            COMSOL 5.5.0.359
% Date:               Dec 13 2020, 11:53
% Dimension:          1
% Nodes:              8467
% Expressions:        1
% Description:        Point graph
% X                       Height
0                         4.161634478540812
1                         4.161634477110789
2                         4.161634477092568
3                         4.161634477087119
4                         4.16163447708742
5                         4.161634477087518
6                         4.161634477087575
7                         4.161634477087619
8                         4.161634477087652
9                         4.161634477087677
10                        4.161634477087695
11                        4.161634477087706
12                        4.161634477087713
13                        4.161634477087716
14                        4.161634477087715
15                        4.161634477087713
16                        4.161634477087707
17                        4.161634477087703
18                        4.161634477087695
19                        4.161634477087686
20                        4.161634477087678
21                        4.161634477087667
22                        4.161634477087659
23                        4.1616344770876506
24                        4.161634477087641
25                        4.161634477087634
26                        4.161634477087623
27                        4.161634477087616
28                        4.161634477087607
29                        4.161634477087602
30                        4.161634477087593
31                        4.161634477087587
32                        4.161634477087578
33                        4.161634477087575
34                        4.161634477087567
35                        4.161634477087564
36                        4.161634477087557
37                        4.161634477087551
38                        4.161634477087546
39                        4.161634477087543
40                        4.161634477087538
41                        4.161634477087534
42                        4.16163447708753
43                        4.161634477087524
44                        4.161634477087524
45                        4.161634477087519
46                        4.1616344770875155
47                        4.161634477087513
48                        4.16163447708751
49                        4.161634477087506
50                        4.161634477087507
51                        4.161634477087502
52                        4.161634477087502
53                        4.160924762289987
54                        4.159289378855211
55                        4.1575969332976115
56                        4.155683396364285
57                        4.158357039981358
58                        4.159153166162292
59                        4.159299817911875
60                        4.159368778977024
61                        4.159428964258659
62                        4.1594704138715874
63                        4.159499470471704
64                        4.1595198645048646
65                        4.160146433349079
66                        4.160281593598693
67                        4.1603831624305885
68                        4.160466130545937
69                        4.16053990447547
70                        4.160603883442608
71                        4.160659408703953
72                        4.160707916524649
73                        4.160750580336978
74                        4.160788319527286
75                        4.1608218626457685
76                        4.1608517992419705
77                        4.160878615234115
78                        4.160902716764978
79                        4.160924446865233
80                        4.160944097582228
81                        4.160961919122079
82                        4.160978126932242
83                        4.1609929073081595
84                        4.161006421908431
85                        4.161018811441746
86                        4.161030198711458
87                        4.161040691152814
88                        4.161050382963271
89                        4.161059356902285
90                        4.161067685819712
91                        4.1607271786418165
92                        4.159866320661424
93                        4.158953257015914
94                        4.157901818906735
95                        4.156785344367117
96                        4.155609743648664
97                        4.154400236544319
98                        4.153146011365927
99                        4.151845597103156
100                       4.150501307118112
101                       4.149095100034188
102                       4.1476021334128506
103                       4.152311033020082
104                       4.153303220894923
105                       4.1536758681588815
106                       4.153900665899738
107                       4.1541040303627765
108                       4.154259319396749
109                       4.154380597858554
110                       4.154476255193001
111                       4.1545575457119845
112                       4.15462245370659
113                       4.154672529823498
114                       4.154709982730383
115                       4.154736843740588
116                       4.154754804161285
117                       4.154765240948995
118                       4.154769277814824
119                       4.154767840662136
120                       4.154761700370433
121                       4.154751504614271
122                       4.15473780162107
123                       4.15472105822967
124                       4.1547016739032046
125                       4.154679991811878
126                       4.154656307741561
127                       4.1561591468117784
128                       4.15652709021103
129                       4.156752546974885
130                       4.156941894093647
131                       4.157109158764807
132                       4.157255214288849
133                       4.157384225188813
134                       4.157499162584712
135                       4.157605789325333
136                       4.15770249950087
137                       4.157789785540326
138                       4.157868660314894
139                       4.157940158618906
140                       4.15800520367434
141                       4.158064588822898
142                       4.158118990702055
143                       4.15816898775203
144                       4.1582150769465285
145                       4.1582576874961825
146                       4.158297191777661
147                       4.158333914071735
148                       4.15836813790489
149                       4.1584001119522656
150                       4.158430054908814
151                       4.158458159570993
152                       4.158484596280263
153                       4.1585095158242025
154                       4.15853305195282
155                       4.158555323976045
156                       4.158576438277519
157                       4.158596489807919
158                       4.158615563503306
159                       4.158440643308398
160                       4.158030684830478
161                       4.157448360381987
162                       4.156882952796117
163                       4.156253786481017
164                       4.155591741318825
165                       4.154899358304618
166                       4.154188583820723
167                       4.153453665424661
168                       4.152693666905929
169                       4.151909429971468
170                       4.151101578215715
171                       4.150271469686788
172                       4.149419860581892
173                       4.148532793206877
174                       4.147601483564743
175                       4.146637421856192
176                       4.145641700803664
177                       4.144614278119452
178                       4.143555224003921
179                       4.142463485713751
180                       4.141339248562374
181                       4.140181854696118
182                       4.1389910721754966
183                       4.1377655013336705
184                       4.13650526344611
185                       4.141530228043803
186                       4.142586127552165
187                       4.14300282560653
188                       4.143290985391012
189                       4.143464301317349
190                       4.143627577463079
191                       4.14374858376817
192                       4.1438371093168715
193                       4.143899712658151
194                       4.143947313751219
195                       4.143977395376332
196                       4.143991230438122
197                       4.147162882757561
198                       4.148415674951018
199                       4.149046592237148
200                       4.1495183666178965
201                       4.14995793116442
202                       4.150338393020982
203                       4.1506726499660385
204                       4.150969208380101
205                       4.149466028062435
206                       4.149256564745799
207                       4.14917339958192
208                       4.149111439476061
209                       4.14905844148066
210                       4.1490137608396305
211                       4.1489743750085175
212                       4.148938448609677
213                       4.148904248505643
214                       4.148871781717761
215                       4.148840628125805
216                       4.148810357106566
217                       4.148780628611998
218                       4.148751195244056
219                       4.1487218815274645
220                       4.150467557799791
221                       4.150895934003787
222                       4.151158743538677
223                       4.151378088415604
224                       4.151576578647126
225                       4.151751059469081
226                       4.151906306396517
227                       4.152045690592203
228                       4.152175711863121
229                       4.152294549770829
230                       4.152402745094184
231                       4.152501422177806
232                       4.152591729285682
233                       4.152674689798175
234                       4.152751182429106
235                       4.152821956376004
236                       4.152887652180856
237                       4.152948820452981
238                       4.153005937129236
239                       4.15305941565626
240                       4.153109616752935
241                       4.153156856321096
242                       4.153201411934326
243                       4.153243528219085
244                       4.153283421357802
245                       4.153321282886891
246                       4.15335728291948
247                       4.153391572894516
248                       4.152779755372456
249                       4.151305245911886
250                       4.149680036110052
251                       4.147812370289612
252                       4.150440412418193
253                       4.151246770186849
254                       4.15140483254237
255                       4.151489968685976
256                       4.151566180737601
257                       4.1516238879834475
258                       4.151669519042467
259                       4.151706591405167
260                       4.152338564379039
261                       4.152487056490748
262                       4.152602502916085
263                       4.1526995414844246
264                       4.15278399723382
265                       4.152861607684749
266                       4.152931468338141
267                       4.152994286310767
268                       4.153051025307572
269                       4.153102555352612
270                       4.153149599260671
271                       4.153192750572008
272                       4.153232500478775
273                       4.153269260132004
274                       4.153303377287716
275                       4.153335148613495
276                       4.15336482895185
277                       4.153392638457382
278                       4.153418768216609
279                       4.153443384754845
280                       4.15346663370531
281                       4.1534886428324995
282                       4.153509524548116
283                       4.153529378021902
284                       4.153548290963985
285                       4.153566341138325
286                       4.153241032656979
287                       4.152404232229459
288                       4.151517230208958
289                       4.150495424042601
290                       4.149410603229656
291                       4.1482687139601335
292                       4.147094272394257
293                       4.145876407316093
294                       4.144613518510167
295                       4.143307666596307
296                       4.14194087460312
297                       4.140488625301034
298                       4.145157632753533
299                       4.146115631508598
300                       4.146485965260402
301                       4.1467140830833635
302                       4.146919777822391
303                       4.147078716638878
304                       4.147204444167077
305                       4.147305060064434
306                       4.147391560901589
307                       4.147461929975837
308                       4.147517655914399
309                       4.14756088452075
310                       4.147593597453602
311                       4.14761744949198
312                       4.147633791041986
313                       4.147643726349222
314                       4.14764816679839
315                       4.147647872243892
316                       4.14764348189822
317                       4.147635537390302
318                       4.147624500401387
319                       4.147610766350852
320                       4.147594675235837
321                       4.147576520399233
322                       4.1490597153927675
323                       4.149422379697049
324                       4.149646255988385
325                       4.149835196708648
326                       4.1500021616522735
327                       4.150148382797753
328                       4.150277889450272
329                       4.150393567719334
330                       4.1505010704535135
331                       4.150598808416797
332                       4.150687256329675
333                       4.150767403443712
334                       4.1508402631988774
335                       4.150906741224419
336                       4.150967616649103
337                       4.151023554564078
338                       4.1510751239049695
339                       4.151122813712468
340                       4.1511670464957255
341                       4.1512081889672565
342                       4.151246560687886
343                       4.151282441099806
344                       4.151316075313708
345                       4.15134767891987
346                       4.151377442022745
347                       4.15140553264869
348                       4.151432099641306
349                       4.151457275133486
350                       4.151481176666764
351                       4.151503909014648
352                       4.151525565756057
353                       4.151546230636662
354                       4.151376067702217
355                       4.150975173790965
356                       4.150405560210883
357                       4.149853434219353
358                       4.149239243112118
359                       4.148592990146798
360                       4.147917146463452
361                       4.147223320826868
362                       4.146505909550923
363                       4.145763990396571
364                       4.144998373146051
365                       4.144209648897311
366                       4.143399133016177
367                       4.142567547862634
368                       4.141701125396768
369                       4.140791215656325
370                       4.139849142645038
371                       4.138875954413569
372                       4.137871579588783
373                       4.136836060533821
374                       4.135768334684289
375                       4.134668562044716
376                       4.133536069453571
377                       4.1323706040702906
378                       4.131170760948846
379                       4.129936636802396
380                       4.134921883089084
381                       4.135943623024582
382                       4.136354408327388
383                       4.136639848399532
384                       4.1368142426639185
385                       4.136977331728729
386                       4.137099027105553
387                       4.137188847553509
388                       4.137253185355116
389                       4.137302759122743
390                       4.137335076308975
391                       4.137351374834323
392                       4.140477591859936
393                       4.1417120280163155
394                       4.142330042878556
395                       4.1427971963835875
396                       4.143228431640876
397                       4.143601845066307
398                       4.143929981742862
399                       4.144221127137188
400                       4.142738658052152
401                       4.142535245371183
402                       4.142455072209486
403                       4.142395332773305
404                       4.142344481970416
405                       4.1423016833135735
406                       4.142264025184684
407                       4.142229733498124
408                       4.142197124260118
409                       4.142166207380243
410                       4.142136575677864
411                       4.1421078103803355
412                       4.142079579954938
413                       4.142051642500249
414                       4.142023825898097
415                       4.1437456710672445
416                       4.144165022959696
417                       4.144422470126527
418                       4.1446379473664265
419                       4.144832504089559
420                       4.14500357881524
421                       4.145155812522298
422                       4.145292490213203
423                       4.145419979046681
424                       4.145536489939109
425                       4.145642550462388
426                       4.145739262453721
427                       4.145827752793234
428                       4.145909026826823
429                       4.145983948456596
430                       4.146053254651997
431                       4.14611757571929
432                       4.1461774535693605
433                       4.146233356643837
434                       4.146285691853884
435                       4.146334814172864
436                       4.1463810344068674
437                       4.146424625584163
438                       4.146465828254579
439                       4.146504854930635
440                       4.146541893827023
441                       4.146577112044798
442                       4.1466106582839695
443                       4.1460076572174644
444                       4.144555899214618
445                       4.1429578991384295
446                       4.14112308246138
447                       4.143709994327199
448                       4.144511877110293
449                       4.144666189149289
450                       4.14475028449474
451                       4.144825239609622
452                       4.144882089270558
453                       4.14492716139144
454                       4.144963871966136
455                       4.1455864788375285
456                       4.145731974101009
457                       4.145845127846202
458                       4.145940281006455
459                       4.14602647751762
460                       4.146103052322782
461                       4.146171239594225
462                       4.146232388923869
463                       4.146287613343324
464                       4.146337791341082
465                       4.14638362345519
466                       4.146425679699234
467                       4.146464432224736
468                       4.146500277491749
469                       4.1465335518370985
470                       4.1465645428652715
471                       4.146593498062248
472                       4.146620631495039
473                       4.14664612913362
474                       4.146670153147093
475                       4.146692845421515
476                       4.146714330468089
477                       4.146734717853588
478                       4.146754104247002
479                       4.146772575146739
480                       4.146790206350845
481                       4.146469556766508
482                       4.1456456343499495
483                       4.1447736393331995
484                       4.143770092513408
485                       4.142704954060832
486                       4.141583985227598
487                       4.140431082460673
488                       4.139235605326679
489                       4.137995957295813
490                       4.136714125740636
491                       4.135372322721082
492                       4.133946329472471
493                       4.138577769470448
494                       4.1395022054895465
495                       4.139865308001795
496                       4.140090838960515
497                       4.140293200507608
498                       4.140449955829381
499                       4.140574242442457
500                       4.1406739296551995
501                       4.14075977244888
502                       4.140829776634532
503                       4.140885387795739
504                       4.140928702274562
505                       4.140961660804115
506                       4.140985887027625
507                       4.14100270802442
508                       4.141013210359299
509                       4.141018291695083
510                       4.141018701016222
511                       4.141015068744619
512                       4.141007929277856
513                       4.140997738253624
514                       4.140984886011189
515                       4.140969708204864
516                       4.140952494415105
517                       4.142415937129628
518                       4.1427710659787405
519                       4.142990424455356
520                       4.143175801712708
521                       4.143339404388118
522                       4.143482693027662
523                       4.143609589960842
524                       4.143722912601504
525                       4.143828204963347
526                       4.143923904116807
527                       4.144010474183995
528                       4.144088885950197
529                       4.144160135175708
530                       4.144225112500887
531                       4.144284584688411
532                       4.1443392065907
533                       4.144389538555425
534                       4.144436062313839
535                       4.144479194071273
536                       4.14451929504554
537                       4.144556679963905
538                       4.144591623984527
539                       4.1446243683986355
540                       4.14465512537327
541                       4.144684081931814
542                       4.1447114033172054
543                       4.144737235850035
544                       4.144761709369079
545                       4.144784939325543
546                       4.144807028583692
547                       4.144828068974659
548                       4.144848142640712
549                       4.144680113529189
550                       4.144285003585413
551                       4.143724224647367
552                       4.143181387464576
553                       4.1425989618464465
554                       4.141981028017
555                       4.141330966921636
556                       4.140651395559261
557                       4.13994494616297
558                       4.139213522384299
559                       4.138458850927796
560                       4.137681780274033
561                       4.136883649632951
562                       4.136065142266063
563                       4.135212622556205
564                       4.134317522940671
565                       4.133390997455174
566                       4.132434034100392
567                       4.131446518553952
568                       4.130428454624227
569                       4.129378758175104
570                       4.128297554554825
571                       4.127184147600024
572                       4.126038258615379
573                       4.124858471923554
574                       4.123644858323439
575                       4.128594083021041
576                       4.129584815095055
577                       4.129989183057815
578                       4.130270962092181
579                       4.130445026310886
580                       4.13060669819681
581                       4.130727762664253
582                       4.130817507448155
583                       4.130882181641887
584                       4.130932319268007
585                       4.130965455714375
586                       4.130982800247209
587                       4.134069034305104
588                       4.135286663118217
589                       4.1358929375740585
590                       4.136355084535738
591                       4.136778448525596
592                       4.1371450872396105
593                       4.137467248944083
594                       4.137753033156489
595                       4.136287809241563
596                       4.136088684861116
597                       4.136010267415659
598                       4.135951672446044
599                       4.135901901496695
600                       4.1358599758043395
601                       4.1358230758559
602                       4.1357894785915015
603                       4.135757536447713
604                       4.135727264658585
605                       4.1356982676945515
606                       4.135670136833046
607                       4.135642547531094
608                       4.13561526226943
609                       4.135588111506519
610                       4.137288608951227
611                       4.137699786746606
612                       4.137952164814805
613                       4.13816381424893
614                       4.13835451857964
615                       4.1385221953735165
616                       4.138671372071481
617                       4.138805260751042
618                       4.138930113293302
619                       4.139044168981603
620                       4.1391479446792925
621                       4.139242523208268
622                       4.1393290132292195
623                       4.13940840467682
624                       4.139481548762032
625                       4.1395491719601765
626                       4.139611895774156
627                       4.139670254628918
628                       4.139724710500442
629                       4.139775664660557
630                       4.139823467107783
631                       4.139868424237993
632                       4.139910805132679
633                       4.139950846793142
634                       4.139988758533032
635                       4.140024725667543
636                       4.1400589126589455
637                       4.140091465797461
638                       4.139495812540707
639                       4.138063463053642
640                       4.136488593297658
641                       4.13468169673664
642                       4.137233017901248
643                       4.138029995278701
644                       4.138181303979576
645                       4.138263792216098
646                       4.138337221865365
647                       4.138393002441997
648                       4.138437277425576
649                       4.138473371030474
650                       4.13908752403784
651                       4.139230194235191
652                       4.139341123489796
653                       4.13943440211934
654                       4.139518894056507
655                       4.139593940799705
656                       4.139660746615337
657                       4.139720631903144
658                       4.139774687801426
659                       4.139823777113384
660                       4.139868588910515
661                       4.139909684514776
662                       4.139947529253454
663                       4.139982514064111
664                       4.140014970714884
665                       4.140045182953278
666                       4.140073394966344
667                       4.140099817964964
668                       4.140124635416017
669                       4.140148007279808
670                       4.140170073482379
671                       4.1401909567834725
672                       4.140210765174751
673                       4.140229593904013
674                       4.140247527180237