% Model:              Drive_Cycle_10_NEDC_NM.mph
% Version:            COMSOL 5.5.0.359
% Date:               Dec 13 2020, 11:53
% Table:              Probe Table 1 - 
% Time (s)                                        Electrode current density vector, x component (A/m^2), Point: 1.083E-4
0                                                 -7.545343787776788E-5
1                                                 3.8966174928635214E-7
2                                                 5.803472861711627E-8
3                                                 0
4                                                 1.6581351033461792E-8
5                                                 8.290675516730896E-9
6                                                 2.4872026550192687E-8
7                                                 0
8                                                 8.290675516730896E-9
9                                                 0
10                                                8.290675516730896E-9
11                                                0
12                                                8.290675516730896E-9
13                                                8.290675516730896E-9
14                                                8.290675516730896E-9
15                                                1.6581351033461792E-8
16                                                0
17                                                0
18                                                0
19                                                1.6581351033461792E-8
20                                                8.290675516730896E-9
21                                                -8.290675516730896E-9
22                                                1.6581351033461792E-8
23                                                0
24                                                -8.290675516730896E-9
25                                                8.290675516730896E-9
26                                                8.290675516730896E-9
27                                                0
28                                                8.290675516730896E-9
29                                                8.290675516730896E-9
30                                                8.290675516730896E-9
31                                                0
32                                                1.6581351033461792E-8
33                                                8.290675516730896E-9
34                                                8.290675516730896E-9
35                                                8.290675516730896E-9
36                                                -8.290675516730896E-9
37                                                8.290675516730896E-9
38                                                8.290675516730896E-9
39                                                8.290675516730896E-9
40                                                0
41                                                8.290675516730896E-9
42                                                0
43                                                0
44                                                0
45                                                8.290675516730896E-9
46                                                8.290675516730896E-9
47                                                8.290675516730896E-9
48                                                8.290675516730896E-9
49                                                8.290675516730896E-9
50                                                0
51                                                8.290675516730896E-9
52                                                8.290675516730896E-9
53                                                1.1527374224109572
54                                                3.5747520876518704
55                                                5.757819146028229
56                                                7.884564669266926
57                                                1.9985061170880498
58                                                0.99730638306067
59                                                0.9973035144869411
60                                                0.9973026190939853
61                                                0.9973019475492685
62                                                0.997301731991705
63                                                0.9973018231891357
64                                                0.9973020636187258
65                                                -4.692522342469687E-6
66                                                -6.690575142001834E-6
67                                                -6.84809797681972E-6
68                                                -6.707156493035295E-6
69                                                -6.458436227533368E-6
70                                                -6.168262584447787E-6
71                                                -5.795182186194897E-6
72                                                -5.430392463458737E-6
73                                                -5.049021389689116E-6
74                                                -4.700813017986418E-6
75                                                -4.369185997317182E-6
76                                                -4.045849652164677E-6
77                                                -3.7722573601125577E-6
78                                                -3.4986650680604383E-6
79                                                -3.266526153591973E-6
80                                                -3.026096563606777E-6
81                                                -2.8188296756885046E-6
82                                                -2.628144138803694E-6
83                                                -2.454039952952345E-6
84                                                -2.3048077936511893E-6
85                                                -2.1389942833165712E-6
86                                                -2.0063434750488768E-6
87                                                -1.8902740178146443E-6
88                                                -1.7742045605804119E-6
89                                                -1.6581351033461792E-6
90                                                -1.5669376726621395E-6
91                                                0.612096320283702
92                                                1.9923104621116947
93                                                3.168419779663496
94                                                4.322641407096134
95                                                5.4582241533896205
96                                                6.578823916273192
97                                                7.686879232136584
98                                                8.78496958714399
99                                                9.87644952955097
100                                               10.96286341323007
101                                               12.083130778060148
102                                               13.279179319461848
103                                               3.1433994329283093
104                                               2.713093583767517
105                                               2.7130905245082517
106                                               2.71309137844783
107                                               2.7130926635025348
108                                               2.7130949517289777
109                                               2.7130978203027065
110                                               2.713101020503456
111                                               2.713104328482987
112                                               2.7131077691133263
113                                               2.713111292650421
114                                               2.713114824478191
115                                               2.7131183563059613
116                                               2.7131218715523806
117                                               2.7131253370547466
118                                               2.713128794266437
119                                               2.713132201734074
120                                               2.7131355760390097
121                                               2.713138917181243
122                                               2.7131422334514497
123                                               2.713145533140305
124                                               2.7131487830851078
125                                               2.7131520330299104
126                                               2.7131552415213354
127                                               -1.081104087381709E-5
128                                               -2.11992572962809E-5
129                                               -1.951625016638453E-5
130                                               -1.8902740178146442E-5
131                                               -1.823119546129124E-5
132                                               -1.739383723410142E-5
133                                               -1.6490153602777754E-5
134                                               -1.5561597944903893E-5
135                                               -1.4657914313580224E-5
136                                               -1.3779102708806749E-5
137                                               -1.2925163130583468E-5
138                                               -1.211267692994384E-5
139                                               -1.1374806808954789E-5
140                                               -1.0670099390032664E-5
141                                               -1.0023426699727654E-5
142                                               -9.426498062523029E-6
143                                               -8.87931347841879E-6
144                                               -8.373582271898206E-6
145                                               -7.892723091927813E-6
146                                               -7.453317289541076E-6
147                                               -7.047074189221262E-6
148                                               -6.673993790968372E-6
149                                               -6.334076094782405E-6
150                                               -6.019030425146631E-6
151                                               -5.7288567820610495E-6
152                                               -5.446973814492199E-6
153                                               -5.18167219795681E-6
154                                               -4.957823959005076E-6
155                                               -4.7256850445366105E-6
156                                               -4.52670883213507E-6
157                                               -4.34431397076699E-6
158                                               -4.178500460432372E-6
159                                               0.3408715218228156
160                                               1.0138274857551517
161                                               1.847945899347895
162                                               2.5000538570335675
163                                               3.1438689421734973
164                                               3.7807878102559083
165                                               4.411843056625734
166                                               5.0387016459557445
167                                               5.661948709251886
168                                               6.282757667273419
169                                               6.901812558785201
170                                               7.52083074747647
171                                               8.139890837241802
172                                               8.760041382976498
173                                               9.408241431269252
174                                               10.095783172347497
175                                               10.796305043735002
176                                               11.509623912700278
177                                               12.236980677810614
178                                               12.978754579436174
179                                               13.737163116266741
180                                               14.511649668929474
181                                               15.30341775333576
182                                               16.112643778479242
183                                               16.94166424740607
184                                               17.789563828085825
185                                               6.968054492397946
186                                               6.565795990219579
187                                               6.5658031119098474
188                                               6.565817802986864
189                                               6.565834790580997
190                                               6.565851977151343
191                                               6.565869835266406
192                                               6.565888083043219
193                                               6.56590648005219
194                                               6.565924984839944
195                                               6.5659435476624255
196                                               6.565962127066259
197                                               0.7544366151319856
198                                               -5.058970200309193E-5
199                                               -5.165919914475021E-5
200                                               -5.036585376414019E-5
201                                               -4.869113730976055E-5
202                                               -4.646923627127667E-5
203                                               -4.40069056428076E-5
204                                               -4.149483096123814E-5
205                                               3.196239348626775
206                                               3.1962610701966288
207                                               3.196266110927343
208                                               3.1962717651680452
209                                               3.1962773116299656
210                                               3.1962824684301374
211                                               3.196287393091394
212                                               3.196292160229816
213                                               3.19629686933351
214                                               3.196301478949097
215                                               3.19630602223928
216                                               3.1963104992040594
217                                               3.1963149430061364
218                                               3.1963193785175377
219                                               3.196323764284886
220                                               -1.5743992806271972E-5
221                                               -2.810539000171774E-5
222                                               -2.624827868597002E-5
223                                               -2.552698991601443E-5
224                                               -2.4772538443991917E-5
225                                               -2.3802529408534403E-5
226                                               -2.2708160240325925E-5
227                                               -2.162208174763418E-5
228                                               -2.051942190390897E-5
229                                               -1.9458215437767414E-5
230                                               -1.8421880998176052E-5
231                                               -1.7426999936168344E-5
232                                               -1.6515025629327945E-5
233                                               -1.5661086051104662E-5
234                                               -1.4873471877015228E-5
235                                               -1.4110729729475985E-5
236                                               -1.341431298607059E-5
237                                               -1.277593097128231E-5
238                                               -1.2179002334077687E-5
239                                               -1.1615236398939986E-5
240                                               -1.110121451690267E-5
241                                               -1.0620355336932277E-5
242                                               -1.017265885902881E-5
243                                               -9.766415758708996E-6
244                                               -9.376754009422644E-6
245                                               -9.020254962203216E-6
246                                               -8.672046590500517E-6
247                                               -8.357000920864743E-6
248                                               1.1529763928420513
249                                               3.5755172589673356
250                                               5.759066254311483
251                                               7.886285647690689
252                                               2.0258496686258596
253                                               0.9975146697016768
254                                               0.9975119420694317
255                                               0.9975111710366087
256                                               0.9975106321427001
257                                               0.9975105575266204
258                                               0.9975107730841839
259                                               0.9975111461645821
260                                               -1.008146142834477E-5
261                                               -1.1988316797192875E-5
262                                               -1.2054642201326722E-5
263                                               -1.1797631260308065E-5
264                                               -1.1424550862055175E-5
265                                               -1.1026598437252092E-5
266                                               -1.0554029932798432E-5
267                                               -1.0089752103861501E-5
268                                               -9.62547427492457E-6
269                                               -9.177777797021102E-6
270                                               -8.763244021184558E-6
271                                               -8.340419569831282E-6
272                                               -7.983920522611854E-6
273                                               -7.635712150909155E-6
274                                               -7.295794454723188E-6
275                                               -7.005620811637607E-6
276                                               -6.723737844068757E-6
277                                               -6.458436227533368E-6
278                                               -6.2180066375481725E-6
279                                               -5.994158398596438E-6
280                                               -5.770310159644704E-6
281                                               -5.5547525962097E-6
282                                               -5.3806484103583515E-6
283                                               -5.206544224507003E-6
284                                               -5.049021389689116E-6
285                                               -4.891498554871229E-6
286                                               0.6122246267779989
287                                               1.9927371002737857
288                                               3.169102433885544
289                                               4.323576802561309
290                                               5.459409778023242
291                                               6.580257921254619
292                                               7.688560257795031
293                                               8.786896829283934
294                                               9.878622955009707
295                                               10.965283262437191
296                                               12.085806220502775
297                                               13.282129174973402
298                                               3.100411583957316
299                                               2.7136774794628096
300                                               2.7136742792620603
301                                               2.7136750254228565
302                                               2.713676302186886
303                                               2.713678623576031
304                                               2.713681500440435
305                                               2.713684717222536
306                                               2.7136880666554446
307                                               2.713691523867135
308                                               2.713695072276256
309                                               2.713698628976053
310                                               2.7137022188385513
311                                               2.7137057672476725
312                                               2.713709282494092
313                                               2.7137127562871335
314                                               2.7137162052081485
315                                               2.713719637547812
316                                               2.7137230118527476
317                                               2.7137263612856564
318                                               2.7137296858465385
319                                               2.713732985535394
320                                               2.713736268642899
321                                               2.713739518587701
322                                               -1.2958325832650391E-5
323                                               -2.3636715898199786E-5
324                                               -2.1895674039686296E-5
325                                               -2.1249001349381286E-5
326                                               -2.0560875281492623E-5
327                                               -1.9690354352235877E-5
328                                               -1.8736926667811826E-5
329                                               -1.7800080334421233E-5
330                                               -1.683836197448045E-5
331                                               -1.590980631660659E-5
332                                               -1.5030994711833115E-5
333                                               -1.4201927160160025E-5
334                                               -1.341431298607059E-5
335                                               -1.2684733540598271E-5
336                                               -1.1988316797192875E-5
337                                               -1.136651613343806E-5
338                                               -1.0794459522783627E-5
339                                               -1.0230693587645925E-5
340                                               -9.749834407675534E-6
341                                               -9.285556578738605E-6
342                                               -8.837860100835135E-6
343                                               -8.431617000515322E-6
344                                               -8.066827277779162E-6
345                                               -7.735200257109926E-6
346                                               -7.420154587474152E-6
347                                               -7.129980944388571E-6
348                                               -6.8315166257862585E-6
349                                               -6.591087035801063E-6
350                                               -6.342366770299136E-6
351                                               -6.118518531347402E-6
352                                               -5.902960967912398E-6
353                                               -5.712275431027588E-6
354                                               0.34094321958468427
355                                               1.014044137687755
356                                               1.8483429812517689
357                                               2.5005926182913467
358                                               3.1445480479864236
359                                               3.781606207708191
360                                               4.412799941521848
361                                               5.0397965291458355
362                                               5.663181259108932
363                                               6.284127792599989
364                                               6.9033203341973755
365                                               7.52247657921735
366                                               8.141675231042592
367                                               8.761964993800564
368                                               9.410311024307818
369                                               10.098008174098625
370                                               10.798688936282408
371                                               11.512170244453081
372                                               12.239693221026178
373                                               12.981637313638744
374                                               13.740220485258396
375                                               14.514886124802967
376                                               15.306838005194782
377                                               16.11625265978762
378                                               16.94546718855627
379                                               17.793566085366123
380                                               6.9292642124410735
381                                               6.567229215877507
382                                               6.56723607226616
383                                               6.567250647273718
384                                               6.56726760170515
385                                               6.56728477998482
386                                               6.567302646390559
387                                               6.56732087758602
388                                               6.567339291176343
389                                               6.5673578374174735
390                                               6.567376408530631
391                                               6.567395029387842
392                                               0.7635002303271413
393                                               -5.244681331883965E-5
394                                               -5.355776383808159E-5
395                                               -5.2322453186088684E-5
396                                               -5.060628335412539E-5
397                                               -4.836780096460805E-5
398                                               -4.585572628303859E-5
399                                               -4.330219822388547E-5
400                                               3.196929505910165
401                                               3.1969516420137944
402                                               3.1969566910351843
403                                               3.196962428182642
404                                               3.196967966353887
405                                               3.196973181188787
406                                               3.1969781307220706
407                                               3.1969829310231948
408                                               3.1969876401268884
409                                               3.196992282905178
410                                               3.196996834486036
411                                               3.1970013446135175
412                                               3.1970058049969454
413                                               3.197010257089698
414                                               3.1970146677290727
415                                               -1.6772036570346602E-5
416                                               -2.9506514164045258E-5
417                                               -2.7591368119680423E-5
418                                               -2.6861788674208104E-5
419                                               -2.60824651756354E-5
420                                               -2.5095874789144422E-5
421                                               -2.3993214945419213E-5
422                                               -2.2865683075143813E-5
423                                               -2.172986052935168E-5
424                                               -2.0643782036659933E-5
425                                               -1.959086624603511E-5