% Model:              Pulse_Discharge_90_10_NM.mph
% Version:            COMSOL 5.5.0.359
% Date:               Dec 4 2020, 14:43
% Dimension:          1
% Nodes:              36002
% Expressions:        1
% Description:        Point graph
% X                       Height
0                         4.161634495965843
1                         4.161634477777581
2                         4.16163447723854
3                         4.161634477078315
4                         4.161634477087298
5                         4.152670954696736
6                         4.150021104579844
7                         4.148451105512574
8                         4.147162529860775
9                         4.145999355071255
10                        4.144960202027826
11                        4.14401863596391
12                        4.143157314533622
13                        4.142343890425108
14                        4.141586977128958
15                        4.1408836838188785
16                        4.140228267703423
17                        4.139614880219368
18                        4.139038305775119
19                        4.138494061769558
20                        4.137978323526459
21                        4.13748782010105
22                        4.137019740207538
23                        4.136571655229801
24                        4.1361414583839196
25                        4.13572731473602
26                        4.135327619986001
27                        4.134940967228355
28                        4.134566119195424
29                        4.134201985112282
30                        4.133847601049842
31                        4.133502113287768
32                        4.133164764100838
33                        4.132834879478603
34                        4.1325118587659295
35                        4.132195165868468
36                        4.131884321196558
37                        4.131578894794335
38                        4.131278500443455
39                        4.130982790447694
40                        4.130691451303165
41                        4.130404199509312
42                        4.130120778457753
43                        4.12984095513993
44                        4.129564517785014
45                        4.129291273274466
46                        4.129021045363381
47                        4.12875367165184
48                        4.12848900262178
49                        4.128226903192756
50                        4.127967246408927
51                        4.127709919802938
52                        4.127454814992231
53                        4.12720183265641
54                        4.126950884171407
55                        4.126701880577807
56                        4.126454745565953
57                        4.126209404556488
58                        4.125965787982219
59                        4.125723830603844
60                        4.125483473797323
61                        4.125244657395387
62                        4.125007329881221
63                        4.124771440734339
64                        4.124536941012262
65                        4.124303785489661
66                        4.124071932448874
67                        4.123841341120816
68                        4.123611971072615
69                        4.123383788287774
70                        4.123156756936997
71                        4.12293084378537
72                        4.122706016601856
73                        4.122482246525535
74                        4.122259504617011
75                        4.122037761053216
76                        4.121816991823519
77                        4.121597171245178
78                        4.121378273864151
79                        4.121160276873631
80                        4.1209431575868996
81                        4.120726895238422
82                        4.120511467777326
83                        4.120296855052975
84                        4.1200830389904715
85                        4.119870000440767
86                        4.11965772104501
87                        4.119446183573461
88                        4.119235371421931
89                        4.119025269001222
90                        4.118815859759654
91                        4.118607128334183
92                        4.118399061213649
93                        4.118191644029512
94                        4.1179848621639765
95                        4.117778703207407
96                        4.117573153467788
97                        4.11736820128296
98                        4.117163834488403
99                        4.1169600396543595
100                       4.116756806867753
101                       4.116554125017511
102                       4.116351982767636
103                       4.116150369529471
104                       4.1159492753173454
105                       4.115748690045775
106                       4.115548604655176
107                       4.115349009739836
108                       4.115149894580267
109                       4.114951251884411
110                       4.114753073062222
111                       4.114555349384192
112                       4.114358072427367
113                       4.114161234397849
114                       4.113964827238238
115                       4.1137688439152695
116                       4.113573277075601
117                       4.113378118390023
118                       4.113183361693357
119                       4.112989000413824
120                       4.112795027550673
121                       4.112601435931349
122                       4.11240822008289
123                       4.112215373130927
124                       4.112022889693398
125                       4.111830763744951
126                       4.111638989225541
127                       4.11144756006515
128                       4.111256471671598
129                       4.1110657187110045
130                       4.110875295602113
131                       4.110685197299762
132                       4.110495418969648
133                       4.1103059552307215
134                       4.110116801745387
135                       4.1099279539143945
136                       4.109739406581969
137                       4.109551155502494
138                       4.109363196703765
139                       4.1091755257277525
140                       4.108988137943329
141                       4.108801029665122
142                       4.1086141966754735
143                       4.108427635148246
144                       4.108241341634102
145                       4.108055312342486
146                       4.107869542833821
147                       4.1076840301330115
148                       4.107498770890305
149                       4.107313761683928
150                       4.107128998667337
151                       4.106944479099923
152                       4.106760199383452
153                       4.106576156564341
154                       4.106392347674639
155                       4.106208769676583
156                       4.106025418819669
157                       4.105842293033898
158                       4.105659389502848
159                       4.105476705341072
160                       4.105294237391088
161                       4.1051119834852745
162                       4.104929940593176
163                       4.104748106535137
164                       4.104566478900162
165                       4.104385055050101
166                       4.104203831987629
167                       4.1040228081513925
168                       4.103841981299743
169                       4.103661348943944
170                       4.1034809086892325
171                       4.10330065852559
172                       4.103120595897702
173                       4.102940719185729
174                       4.102761026420453
175                       4.1025815152575404
176                       4.102402183639668
177                       4.102223030022712
178                       4.102044052382117
179                       4.101865248463753
180                       4.101686616718017
181                       4.101508155208823
182                       4.101329862265155
183                       4.10115173634283
184                       4.100973775796984
185                       4.100795978310228
186                       4.100618342909931
187                       4.100440867973828
188                       4.100263551723047
189                       4.100086392503819
190                       4.099909388882764
191                       4.099732539166773
192                       4.099555842271584
193                       4.099379296832218
194                       4.099202900870648
195                       4.099026653390045
196                       4.098850553115585
197                       4.098674598517372
198                       4.098498788005098
199                       4.0983231204192325
200                       4.098147594388463
201                       4.09797220896719
202                       4.097796962865479
203                       4.09762185435531
204                       4.097446882879256
205                       4.097272047285745
206                       4.097097345989547
207                       4.0969227779210815
208                       4.096748341852118
209                       4.096574036927081
210                       4.096399862101326
211                       4.096225815893339
212                       4.09605189752757
213                       4.095878106090537
214                       4.095704440287713
215                       4.095530899185114
216                       4.0953574817632425
217                       4.095184187252996
218                       4.095011014642468
219                       4.094837962457132
220                       4.094665030139334
221                       4.094492216864764
222                       4.094319521440109
223                       4.094146943201173
224                       4.093974481191984
225                       4.0938021347882785
226                       4.09362990272937
227                       4.093457784263471
228                       4.093285778728798
229                       4.093113885047237
230                       4.092942102562549
231                       4.092770430433513
232                       4.092598867982533
233                       4.092427413983616
234                       4.09225606809135
235                       4.0920848293757155
236                       4.091913697113217
237                       4.091742670556805
238                       4.0915717491026475
239                       4.091400931722387
240                       4.091230218028551
241                       4.091059607003534
242                       4.0908890979585975
243                       4.0907186903776855
244                       4.090548383256215
245                       4.090378176304838
246                       4.090208068640197
247                       4.090038059670309
248                       4.089868148633054
249                       4.089698335032632
250                       4.089528618051091
251                       4.089358997117889
252                       4.089189471566626
253                       4.089020040746226
254                       4.08885070399786
255                       4.088681460676587
256                       4.088512309810305
257                       4.0883432505969175
258                       4.088174283436678
259                       4.088005407812861
260                       4.087836623192924
261                       4.087667929029751
262                       4.087499324692557
263                       4.087330809600143
264                       4.087162383170095
265                       4.086994044782664
266                       4.086825793857359
267                       4.08665762986246
268                       4.0864895522863245
269                       4.086321560584182
270                       4.0861536542040335
271                       4.085985832626643
272                       4.085818095319211
273                       4.085650441783776
274                       4.0854828715135
275                       4.085315383971563
276                       4.0851479786936
277                       4.08498065515919
278                       4.0848134128298295
279                       4.08464625119512
280                       4.084479169760803
281                       4.0843121679863055
282                       4.0841452453949
283                       4.083978401561507
284                       4.083811636074559
285                       4.083644948482338
286                       4.0834783383079305
287                       4.08331180506746
288                       4.083145348247937
289                       4.082978967372862
290                       4.082812661960295
291                       4.082646431512059
292                       4.0824802755584955
293                       4.082314193666128
294                       4.082148185462163
295                       4.081982250569249
296                       4.081816388507909
297                       4.081650598830099
298                       4.081484881096742
299                       4.081319234870194
300                       4.081153659703157
301                       4.080988152114651
302                       4.0808227137062625
303                       4.080657344879169
304                       4.080492045257137
305                       4.080326814430943
306                       4.0801616520138015
307                       4.079996557606973
308                       4.0798315307780895
309                       4.079666571084345
310                       4.079501678100392
311                       4.079336851371176
312                       4.079172089304061
313                       4.079007388222222
314                       4.078842752158755
315                       4.07867818069878
316                       4.078513673414181
317                       4.078349229885679
318                       4.078184849689068
319                       4.078020532475968
320                       4.077856277955395
321                       4.077692085716904
322                       4.077527955370816
323                       4.0773638865315665
324                       4.077199878828614
325                       4.077035929473932
326                       4.076872039561479
327                       4.076708209542093
328                       4.076544438997316
329                       4.076380727529485
330                       4.076217074749944
331                       4.076053480286499
332                       4.07588994232505
333                       4.075726460410483
334                       4.0755630357756285
335                       4.075399668017257
336                       4.075236356724218
337                       4.075073101586918
338                       4.07490990234738
339                       4.07474675863333
340                       4.07458367003734
341                       4.07442063616131
342                       4.074257656616534
343                       4.074094731008876
344                       4.073931858301845
345                       4.073769034697995
346                       4.073606263917868
347                       4.073443545524179
348                       4.073280879107893
349                       4.073118264281269
350                       4.072955700778616
351                       4.07279318834592
352                       4.072630726636756
353                       4.072468315327811
354                       4.072305954032416
355                       4.0721436424555835
356                       4.071981380307419
357                       4.071819167253213
358                       4.071657000520298
359                       4.0714948816260685
360                       4.071332810591682
361                       4.071170787009309
362                       4.0710088104774975
363                       4.070846880575705
364                       4.070684996989416
365                       4.078039285035324
366                       4.080263216687126
367                       4.081447097706932
368                       4.082416284193116
369                       4.083259461900577
370                       4.084012463534009
371                       4.0846739987084675
372                       4.085257755924322
373                       4.085776301061059
374                       4.086239789995208
375                       4.086656305042586
376                       4.087032381471198
377                       4.08737339292764
378                       4.087683819021945
379                       4.0879674379956175
380                       4.088227463844299
381                       4.088466640858191
382                       4.088687342079904
383                       4.088891618814342
384                       4.08908124898783
385                       4.089257780865399
386                       4.089422566515293
387                       4.089576789924645
388                       4.089721486163308
389                       4.089857572059109
390                       4.0899858551588215
391                       4.090107047792081
392                       4.090221780641581
393                       4.090330613172935
394                       4.09043404254905
395                       4.090532511617127
396                       4.090626415590072
397                       4.090716107855006
398                       4.09080190503477
399                       4.090884091371409
400                       4.090962922535261
401                       4.0910386289641165
402                       4.091111418767327
403                       4.0911814802563615
404                       4.091248984161334
405                       4.09131408568117
406                       4.091376926158728
407                       4.091437634571932
408                       4.091496328872882
409                       4.0915531171667725
410                       4.091608098726216
411                       4.091661364887332
412                       4.091712999882068
413                       4.09176308151648
414                       4.091811681823653
415                       4.091858867633943
416                       4.091904701066036
417                       4.0919492399777955
418                       4.091992538351444
419                       4.092034646645947
420                       4.092075612121434
421                       4.0921154791048355
422                       4.092154289254499
423                       4.092192081772088
424                       4.092228893606881
425                       4.0922647596440225
426                       4.092299712858176
427                       4.092333784481246
428                       4.0923670041404225
429                       4.092399399958589
430                       4.092430998674342
431                       4.0924618257456045
432                       4.092491905439493
433                       4.09252126090127
434                       4.0925499142367725
435                       4.092577886586775
436                       4.092605198186966
437                       4.092631868410059
438                       4.092657915829478
439                       4.092683358268951
440                       4.092708212848701
441                       4.092732496022636
442                       4.092756223616282
443                       4.092779410864157
444                       4.09280207244269
445                       4.0928242225005995
446                       4.092845874680561
447                       4.0928670421480176
448                       4.092887737622516
449                       4.092907973400103
450                       4.0929277613535096
451                       4.092947112968725
452                       4.092966039357962
453                       4.092984551283528
454                       4.0930026591617095
455                       4.0930203730823775
456                       4.093037702825609
457                       4.093054657876274
458                       4.09307124743115
459                       4.093087480414991
460                       4.093103365493489
461                       4.093118911075277
462                       4.093134125329753
463                       4.093149016191932
464                       4.093163591373174
465                       4.093177858371403
466                       4.093191824471826
467                       4.093205496759097
468                       4.093218882126881
469                       4.0932319872831435
470                       4.09324481875252
471                       4.093257382885756
472                       4.093269685865537
473                       4.093281733712073
474                       4.093293532288695
475                       4.093305087306641
476                       4.093316404329787
477                       4.093327488779542
478                       4.093338345939343
479                       4.093348980959717
480                       4.0933593988631225
481                       4.093369604554746
482                       4.09337960281408
483                       4.093389398296766
484                       4.093398995547197
485                       4.09340839899401
486                       4.093417612956962
487                       4.093426641655767
488                       4.093435489206841
489                       4.093444159623264
490                       4.093452656821649
491                       4.093460984624769
492                       4.0934691467641455
493                       4.09347714688253
494                       4.09348498853634
495                       4.093492675197976
496                       4.093500210258086
497                       4.09350759702774
498                       4.093514838740544
499                       4.093521938554803
500                       4.0935288995553245
501                       4.09353572475526
502                       4.0935424170980514
503                       4.093548979459487
504                       4.0935554146526165
505                       4.093561725423559
506                       4.093567914455389
507                       4.09357398437203
508                       4.093579937740368
509                       4.0935857770642805
510                       4.093591504789602
511                       4.093597123308828
512                       4.093602634961695
513                       4.093608042031789
514                       4.09361334675117
515                       4.093618551301679
516                       4.093623657816104
517                       4.093628668379407
518                       4.093633585030427
519                       4.0936384097653935
520                       4.09364314453317
521                       4.093647791238616
522                       4.093652351744212
523                       4.093656827871052
524                       4.093661221399804
525                       4.093665534072156
526                       4.09366976759212
527                       4.09367392362752
528                       4.09367800380818
529                       4.093682009726568
530                       4.093685942940056
531                       4.0936898049718025
532                       4.09369359731153
533                       4.093697321416402
534                       4.093700978712012
535                       4.093704570592943
536                       4.093708098424778
537                       4.0937115635413335
538                       4.093714967247185
539                       4.093718310818481
540                       4.09372159550358
541                       4.093724822523667
542                       4.093727993073348
543                       4.093731108321341
544                       4.093734169411026
545                       4.093737177461011
546                       4.093740133567398
547                       4.0937430388055605
548                       4.093745894223449
549                       4.093748700846156
550                       4.093751459676648
551                       4.093754171696262
552                       4.093756837865169
553                       4.093759459123902
554                       4.09376203639341
555                       4.093764570573255
556                       4.093767062545484
557                       4.093769513175452
558                       4.093771923306252
559                       4.093774293762789
560                       4.093776625353853
561                       4.093778918870013
562                       4.093781175084319
563                       4.0937833947533075
564                       4.093785578617353
565                       4.093787727401056
566                       4.093789841813604
567                       4.093791922548994
568                       4.09379397028645
569                       4.0937959856907415
570                       4.093797969412512
571                       4.093799922088585
572                       4.093801844342273
573                       4.093803736783669
574                       4.09380560001149
575                       4.093807434612515
576                       4.093809241158935
577                       4.093811020210908
578                       4.09381277231719
579                       4.093814498014799
580                       4.093816197829113
581                       4.093817872274433
582                       4.09381952185423
583                       4.093821147061349
584                       4.093822748378229
585                       4.0938243262775185
586                       4.093825881226208
587                       4.093827413679427
588                       4.093828924080499
589                       4.0938304128634515
590                       4.0938318804532186
591                       4.093833327265814
592                       4.093834753708521
593                       4.093836160180092
594                       4.0938375470709225
595                       4.093838914763826
596                       4.093840263633727
597                       4.093841594047052
598                       4.093842906362487
599                       4.093844200931345
600                       4.093845478097641
601                       4.093846738198237
602                       4.093847981562987
603                       4.093849208515149
604                       4.093850419373488
605                       4.093851614448406
606                       4.093852794043292
607                       4.09385395845526
608                       4.093855107975252
609                       4.093856242888202
610                       4.09385736347312
611                       4.093858470003193
612                       4.0938595627460135
613                       4.093860641963675
614                       4.093861707912865
615                       4.093862760844985
616                       4.09386380100627
617                       4.0938648286386
618                       4.093865843979312
619                       4.093866847261267
620                       4.093867838711176
621                       4.0938688185510745
622                       4.093869786998447
623                       4.093870744266319
624                       4.093871690563359
625                       4.093872626094189
626                       4.09387355105916
627                       4.093874465654397
628                       4.0938753700719985
629                       4.0938762645000475
630                       4.0938771491229025
631                       4.093878024121181
632                       4.093878889671817
633                       4.093879745948176
634                       4.093880593120099
635                       4.093881431354053
636                       4.093882260816378
637                       4.09388308166879
638                       4.093883894069466
639                       4.093884698172518
640                       4.093885494128278
641                       4.093886282084098
642                       4.0938870621843435
643                       4.093887834570454
644                       4.0938885993810015
645                       4.093889356751702
646                       4.09389010681553
647                       4.093890849702833
648                       4.093891585541326
649                       4.093892314456167
650                       4.09389303656999
651                       4.093893752002978
652                       4.093894460872902
653                       4.093895163295198
654                       4.093895859383155
655                       4.0938965492478
656                       4.093897232999148
657                       4.093897910743983
658                       4.093898582586712
659                       4.09389924862966
660                       4.09389990897313
661                       4.0939005637154295
662                       4.093901212952912
663                       4.093901856779957
664                       4.093902495289105
665                       4.0939031285711
666                       4.093903756715546
667                       4.093904379812054
668                       4.093904997946351
669                       4.09390561120233
670                       4.09390621966224
671                       4.093906823406687
672                       4.093907422515979
673                       4.09390801706986
674                       4.093908607144377