% Model:              Pulse_Discharge_90_10_NM.mph
% Version:            COMSOL 5.5.0.359
% Date:               Dec 8 2020, 14:10
% Dimension:          1
% Nodes:              36002
% Expressions:        1
% Description:        Point graph
% X                       Height
0                         8.367695892281327E-4
1                         1.0471123177631122E-5
2                         1.3762521357773289E-6
3                         4.145337758365448E-8
4                         1.3265080826769434E-7
5                         15.490638260423081
6                         16.249925617149096
7                         16.249927930247566
8                         16.249926396472596
9                         16.24992330405063
10                        16.249919241619626
11                        16.249914640294712
12                        16.249909881446968
13                        16.249905089436517
14                        16.2499003554608
15                        16.24989572926386
16                        16.24989130204313
17                        16.249887082089295
18                        16.24988309427437
19                        16.249879355179715
20                        16.24987583164262
21                        16.24987254024444
22                        16.249869439531796
23                        16.249866554376716
24                        16.249863859907173
25                        16.249861322960466
26                        16.249858968408617
27                        16.249856738216906
28                        16.249854665548025
29                        16.249852692367252
30                        16.249850851837287
31                        16.24984912737678
32                        16.249847527276405
33                        16.24984596033873
34                        16.249844526051866
35                        16.249843149799734
36                        16.249841856454353
37                        16.24984063772505
38                        16.249839468739804
39                        16.24983836607996
40                        16.249837321454844
41                        16.249836301701755
42                        16.24983536485542
43                        16.24983444459044
44                        16.24983357406951
45                        16.24983272012993
46                        16.249831932515757
47                        16.24983115319226
48                        16.249830423612813
49                        16.249829702324043
50                        16.249828997616625
51                        16.24982834265326
52                        16.249827704271244
53                        16.249827074179905
54                        16.249826485541945
55                        16.24982590519466
56                        16.24982532484737
57                        16.249824794244137
58                        16.249824247059554
59                        16.24982374132835
60                        16.249823227306464
61                        16.24982273815661
62                        16.24982225729743
63                        16.249821801310276
64                        16.2498213536138
65                        16.249820914207998
66                        16.249820458220842
67                        16.249820043687066
68                        16.24981962915329
69                        16.24981920632884
70                        16.24981883324844
71                        16.249818418714664
72                        16.24981803734359
73                        16.24981767255387
74                        16.249817316054823
75                        16.249816926393073
76                        16.2498165781847
77                        16.24981622997633
78                        16.249815890058635
79                        16.249815533559588
80                        16.249815218513916
81                        16.249814886886895
82                        16.24981456355055
83                        16.24981424850488
84                        16.249813925168535
85                        16.24981361841354
86                        16.249813311658546
87                        16.249813021484904
88                        16.249812723020586
89                        16.249812407974915
90                        16.24981212609195
91                        16.24981184420898
92                        16.249811562326013
93                        16.249811297024397
94                        16.249811006850752
95                        16.24981073325846
96                        16.249810467956845
97                        16.24981021923658
98                        16.249809945644287
99                        16.249809688633345
100                       16.249809431622406
101                       16.24980918290214
102                       16.24980890930985
103                       16.249808677170932
104                       16.249808420159994
105                       16.249808171439728
106                       16.24980794759149
107                       16.24980772374325
108                       16.249807466732307
109                       16.24980724288407
110                       16.249807002454478
111                       16.24980676202489
112                       16.24980653817665
113                       16.24980629774706
114                       16.24980607389882
115                       16.249805858341258
116                       16.24980563449302
117                       16.249805427226132
118                       16.249805195087216
119                       16.24980498782033
120                       16.24980476397209
121                       16.2498045567052
122                       16.249804341147637
123                       16.249804142171424
124                       16.24980392661386
125                       16.24980372763765
126                       16.24980352037076
127                       16.249803313103875
128                       16.249803105836985
129                       16.249802906860772
130                       16.249802716175235
131                       16.2498025254897
132                       16.24980232651349
133                       16.2498021192466
134                       16.249801928561062
135                       16.24980172958485
136                       16.24980154718999
137                       16.249801356504452
138                       16.249801165818916
139                       16.249800983424056
140                       16.249800776157166
141                       16.24980060205298
142                       16.249800411367442
143                       16.24980023726326
144                       16.24980006315907
145                       16.249799864182858
146                       16.249799698369348
147                       16.24979950768381
148                       16.249799316998274
149                       16.249799151184764
150                       16.24979897708058
151                       16.249798802976393
152                       16.249798620581533
153                       16.249798446477346
154                       16.24979827237316
155                       16.24979810655965
156                       16.249797932455465
157                       16.249797766641954
158                       16.249797609119117
159                       16.249797426724257
160                       16.24979725262007
161                       16.249797086806563
162                       16.249796920993052
163                       16.249796746888865
164                       16.249796597656704
165                       16.24979642355252
166                       16.249796266029684
167                       16.24979610850685
168                       16.249795934402663
169                       16.24979577687983
170                       16.249795635938344
171                       16.249795453543484
172                       16.249795279439297
173                       16.24979514678849
174                       16.249794997556332
175                       16.249794823452145
176                       16.24979466592931
177                       16.249794533278504
178                       16.249794367464993
179                       16.249794209942156
180                       16.24979406071
181                       16.24979390318716
182                       16.249793753955004
183                       16.249793588141493
184                       16.24979344720001
185                       16.249793289677175
186                       16.24979314873569
187                       16.249792991212857
188                       16.249792841980696
189                       16.249792701039212
190                       16.249792551807055
191                       16.249792419156247
192                       16.24979226163341
193                       16.249792120691925
194                       16.24979196316909
195                       16.249791822227607
196                       16.249791664704773
197                       16.249791532053965
198                       16.249791382821805
199                       16.24979124188032
200                       16.24979110093884
201                       16.24979095170668
202                       16.249790810765194
203                       16.24979066982371
204                       16.249790528882226
205                       16.24979039623142
206                       16.24979024699926
207                       16.24979011434845
208                       16.249789965116292
209                       16.249789840756158
210                       16.249789699814677
211                       16.249789575454543
212                       16.24978941793171
213                       16.2497892852809
214                       16.24978913604874
215                       16.24978901168861
216                       16.249788862456448
217                       16.24978874638699
218                       16.249788605445506
219                       16.249788472794698
220                       16.249788348434567
221                       16.249788207493083
222                       16.249788083132948
223                       16.24978795048214
224                       16.249787809540656
225                       16.249787685180525
226                       16.249787560820394
227                       16.24978741987891
228                       16.249787303809452
229                       16.249787162867968
230                       16.249787038507836
231                       16.249786897566352
232                       16.249786773206218
233                       16.249786648846086
234                       16.24978651619528
235                       16.249786383544468
236                       16.249786267475013
237                       16.24978612653353
238                       16.249786002173394
239                       16.249785894394613
240                       16.249785761743805
241                       16.24978562080232
242                       16.249785521314216
243                       16.24978539695408
244                       16.249785256012597
245                       16.249785139943143
246                       16.249785007292335
247                       16.2497848829322
248                       16.24978475857207
249                       16.249784650793288
250                       16.249784509851803
251                       16.249784402073022
252                       16.24978426942221
253                       16.249784136771403
254                       16.2497840372833
255                       16.249783896341814
256                       16.249783780272356
257                       16.24978364762155
258                       16.249783539842767
259                       16.24978342377331
260                       16.24978330770385
261                       16.249783191634396
262                       16.249783075564938
263                       16.24978294291413
264                       16.24978283513535
265                       16.249782694193865
266                       16.249782594705756
267                       16.249782470345625
268                       16.249782354276167
269                       16.24978223820671
270                       16.249782122137255
271                       16.249782006067797
272                       16.24978188999834
273                       16.24978177392888
274                       16.24978164956875
275                       16.249781541789968
276                       16.249781434011187
277                       16.24978131794173
278                       16.249781193581594
279                       16.24978109409349
280                       16.24978096144268
281                       16.24978087024525
282                       16.249780737594442
283                       16.249780621524984
284                       16.24978050545553
285                       16.249780397676744
286                       16.24978028160729
287                       16.24978017382851
288                       16.24978005775905
289                       16.249779941689592
290                       16.249779842201487
291                       16.24977974271338
292                       16.24977961006257
293                       16.24977950228379
294                       16.249779386214332
295                       16.24977927843555
296                       16.249779162366092
297                       16.24977905458731
298                       16.24977894680853
299                       16.249778830739075
300                       16.249778731250967
301                       16.249778623472185
302                       16.249778490821377
303                       16.249778399623946
304                       16.249778308426517
305                       16.249778175775706
306                       16.2497780762876
307                       16.249777960218143
308                       16.249777869020715
309                       16.24977774466058
310                       16.249777645172475
311                       16.249777537393694
312                       16.249777421324236
313                       16.249777313545454
314                       16.249777222348023
315                       16.24977711456924
316                       16.249776981918433
317                       16.249776907302355
318                       16.249776774651544
319                       16.249776683454115
320                       16.249776567384657
321                       16.249776459605876
322                       16.24977636011777
323                       16.249776244048313
324                       16.249776144560204
325                       16.24977606165345
326                       16.249775945583995
327                       16.249775837805213
328                       16.249775738317105
329                       16.249775622247647
330                       16.24977553105022
331                       16.24977541498076
332                       16.249775315492656
333                       16.249775207713874
334                       16.249775116516442
335                       16.24977500873766
336                       16.249774909249552
337                       16.249774793180098
338                       16.24977469369199
339                       16.249774585913208
340                       16.249774494715776
341                       16.249774386936995
342                       16.249774295739567
343                       16.249774196251458
344                       16.249774088472677
345                       16.249773980693895
346                       16.249773864624437
347                       16.249773781717682
348                       16.2497736739389
349                       16.249773574450796
350                       16.24977347496269
351                       16.24977338376526
352                       16.2497732676958
353                       16.249773168207696
354                       16.249773077010264
355                       16.249772969231483
356                       16.24977287803405
357                       16.24977277025527
358                       16.249772662476488
359                       16.249772562988383
360                       16.249772480081628
361                       16.249772380593523
362                       16.249772281105415
363                       16.249772189907983
364                       16.24977207383853
365                       0.8888797679582909
366                       1.4510340289382415E-4
367                       1.498705413159444E-4
368                       1.4940626348700748E-4
369                       1.462226440885828E-4
370                       1.41472087017496E-4
371                       1.355359633475167E-4
372                       1.2914385252411716E-4
373                       1.2267712562106706E-4
374                       1.1641766560593524E-4
375                       1.1043179788285554E-4
376                       1.0477755718044507E-4
377                       9.949639687628749E-5
378                       9.455515426831587E-5
379                       8.996212003204695E-5
380                       8.567584078989708E-5
381                       8.170460721738299E-5
382                       7.8006965936921E-5
383                       7.454146357092748E-5
384                       7.136613484801956E-5
385                       6.840636368854663E-5
386                       6.56372780659585E-5
387                       6.306716865577192E-5
388                       6.06711634314367E-5
389                       5.844926239295282E-5
390                       5.634343081170317E-5
391                       5.439512206527141E-5
392                       5.2554592100557154E-5
393                       5.0830131593077126E-5
394                       4.92134498673146E-5
395                       4.7704546923269575E-5
396                       4.6295132085425323E-5
397                       4.495204265171492E-5
398                       4.367527862213836E-5
399                       4.2489712023245844E-5
400                       4.135388947745371E-5
401                       4.0284392335795426E-5
402                       3.9256348571720795E-5
403                       3.829463021178001E-5
404                       3.738265590493961E-5
405                       3.649555362464941E-5
406                       3.5666486072976317E-5
407                       3.486229054785342E-5
408                       3.4099548400314173E-5
409                       3.336996895484186E-5
410                       3.2681842886953194E-5
411                       3.201029817009799E-5
412                       3.134704412875952E-5
413                       3.075011549155489E-5
414                       3.0153186854350268E-5
415                       2.9581130243695837E-5
416                       2.90339456595916E-5
417                       2.8503342426520822E-5
418                       2.7989320544483507E-5
419                       2.7508461364513113E-5
420                       2.7027602184542723E-5
421                       2.655503368008906E-5
422                       2.6115627877702325E-5
423                       2.5676222075315585E-5
424                       2.525339762396231E-5
425                       2.4855445199159227E-5
426                       2.4457492774356144E-5
427                       2.406783102506979E-5
428                       2.368645995130017E-5
429                       2.332996090408074E-5
430                       2.2973461856861314E-5
431                       2.2625253485158615E-5
432                       2.230191714000611E-5
433                       2.1978580794853605E-5
434                       2.16552444497011E-5
435                       2.1340198780065327E-5
436                       2.1041734461463016E-5
437                       2.0751560818377433E-5
438                       2.046138717529185E-5
439                       2.0179504207723002E-5
440                       1.9905911915670882E-5
441                       1.9648900974652224E-5
442                       1.9375308682600104E-5
443                       1.9118297741581446E-5
444                       1.886128680056279E-5
445                       1.8620857210577594E-5
446                       1.8380427620592395E-5
447                       1.8156579381640663E-5
448                       1.7907859116138737E-5
449                       1.7692301552703732E-5
450                       1.7468453313751997E-5
451                       1.7252895750316996E-5
452                       1.702904751136526E-5
453                       1.6821780623446987E-5
454                       1.6622804411045445E-5
455                       1.6432118874160635E-5
456                       1.6208270635208903E-5
457                       1.6017585098324092E-5
458                       1.584348091247274E-5
459                       1.5644504700071203E-5
460                       1.5478691189736583E-5
461                       1.5288005652851773E-5
462                       1.5105610791483694E-5
463                       1.4923215930115613E-5
464                       1.4765693095297726E-5
465                       1.4583298233929647E-5
466                       1.442577539911176E-5
467                       1.4251671213260411E-5
468                       1.4102439053959254E-5
469                       1.3936625543624637E-5
470                       1.377081203329002E-5
471                       1.3621579873988862E-5
472                       1.3480638390204438E-5
473                       1.3331406230903281E-5
474                       1.3173883396085394E-5
475                       1.30412325878177E-5
476                       1.2900291104033274E-5
477                       1.2751058944732118E-5
478                       1.2618408136464424E-5
479                       1.2460885301646537E-5
480                       1.2336525168895574E-5
481                       1.220387436062788E-5
482                       1.2071223552360185E-5
483                       1.193857274409249E-5
484                       1.1814212611341528E-5
485                       1.1681561803073833E-5
486                       1.1573783021356331E-5
487                       1.1449422888605368E-5
488                       1.1316772080337673E-5
489                       1.1208993298620171E-5
490                       1.1084633165869208E-5
491                       1.0960273033118245E-5
492                       1.0860784926917474E-5
493                       1.0744715469683242E-5
494                       1.0645227363482471E-5
495                       1.0520867230731508E-5
496                       1.0413088449014006E-5
497                       1.0297018991779772E-5
498                       1.0197530885579002E-5
499                       1.0098042779378232E-5
500                       9.99026399766073E-6
501                       9.882485215943228E-6
502                       9.782997109742457E-6
503                       9.700090354575149E-6
504                       9.584020897340915E-6
505                       9.509404817690339E-6
506                       9.393335360456105E-6
507                       9.293847254255334E-6
508                       9.202649823571295E-6
509                       9.111452392887255E-6
510                       9.028545637719945E-6
511                       8.920766856002445E-6
512                       8.846150776351866E-6
513                       8.754953345667827E-6
514                       8.663755914983787E-6
515                       8.580849159816477E-6
516                       8.497942404649169E-6
517                       8.42332632499859E-6
518                       8.32383821879782E-6
519                       8.249222139147241E-6
520                       8.174606059496664E-6
521                       8.075117953295893E-6
522                       8.017083224678777E-6
523                       7.925885793994736E-6
524                       7.842979038827428E-6
525                       7.77665363469358E-6
526                       7.693746879526271E-6
527                       7.619130799875694E-6
528                       7.536224044708385E-6
529                       7.4616079650578064E-6
530                       7.386991885407229E-6
531                       7.328957156790112E-6
532                       7.246050401622803E-6
533                       7.1797249974889565E-6
534                       7.105108917838378E-6
535                       7.038783513704531E-6
536                       6.964167434053953E-6
537                       6.897842029920106E-6
538                       6.814935274752797E-6
539                       6.765191221652411E-6
540                       6.707156493035295E-6
541                       6.632540413384717E-6
542                       6.56621500925087E-6
543                       6.508180280633754E-6
544                       6.450145552016637E-6
545                       6.38382014788279E-6
546                       6.309204068232212E-6
547                       6.251169339615096E-6
548                       6.184843935481249E-6
549                       6.135099882380863E-6
550                       6.077065153763747E-6
551                       6.019030425146631E-6
552                       5.944414345496052E-6
553                       5.902960967912398E-6
554                       5.844926239295282E-6
555                       5.795182186194897E-6
556                       5.73714745757778E-6
557                       5.6874034044773946E-6
558                       5.621078000343547E-6
559                       5.571333947243162E-6
560                       5.496717867592584E-6
561                       5.446973814492199E-6
562                       5.413811112425275E-6
563                       5.347485708291428E-6
564                       5.314323006224504E-6
565                       5.256288277607388E-6
566                       5.2148349000237334E-6
567                       5.1568001714066175E-6
568                       5.09047476727277E-6
569                       5.057312065205847E-6
570                       4.999277336588731E-6
571                       4.949533283488345E-6
572                       4.916370581421422E-6
573                       4.866626528321036E-6
574                       4.8085917997039195E-6
575                       4.783719773153727E-6
576                       4.7256850445366105E-6
577                       4.675940991436225E-6
578                       4.6261969383358405E-6
579                       4.593034236268917E-6
580                       4.551580858685262E-6
581                       4.5018368055848765E-6
582                       4.468674103517953E-6
583                       4.402348699384106E-6
584                       4.369185997317182E-6
585                       4.327732619733528E-6
586                       4.294569917666604E-6
587                       4.244825864566219E-6
588                       4.203372486982565E-6
589                       4.170209784915641E-6
590                       4.128756407331986E-6
591                       4.087303029748332E-6
592                       4.0541403276814085E-6
593                       4.004396274581023E-6
594                       3.962942896997368E-6
595                       3.921489519413714E-6
596                       3.88832681734679E-6
597                       3.8468734397631355E-6
598                       3.830292088729674E-6
599                       3.7805480356292886E-6
600                       3.747385333562365E-6
601                       3.7142226314954414E-6
602                       3.672769253911787E-6
603                       3.6313158763281324E-6
604                       3.598153174261209E-6
605                       3.5649904721942856E-6
606                       3.523537094610631E-6
607                       3.4986650680604383E-6
608                       3.4655023659935147E-6
609                       3.432339663926591E-6
610                       3.4074676373763984E-6
611                       3.3743049353094748E-6
612                       3.349432908759282E-6
613                       3.3162702066923584E-6
614                       3.274816829108704E-6
615                       3.2333634515250494E-6
616                       3.2084914249748567E-6
617                       3.183619398424664E-6
618                       3.1504566963577408E-6
619                       3.125584669807548E-6
620                       3.0924219677406244E-6
621                       3.05096859015697E-6
622                       3.034387239123508E-6
623                       2.9929338615398536E-6
624                       2.9846431860231227E-6
625                       2.951480483956199E-6
626                       2.9183177818892754E-6
627                       2.9017364308558136E-6
628                       2.885155079822352E-6
629                       2.8354110267219664E-6
630                       2.8105390001717737E-6
631                       2.785666973621581E-6
632                       2.769085622588119E-6
633                       2.735922920521196E-6
634                       2.719341569487734E-6
635                       2.6778881919040796E-6
636                       2.661306840870618E-6
637                       2.644725489837156E-6
638                       2.6032721122535015E-6
639                       2.5784000857033088E-6
640                       2.561818734669847E-6
641                       2.5369467081196542E-6
642                       2.5120746815694615E-6
643                       2.487202655019269E-6
644                       2.454039952952345E-6
645                       2.4374586019188834E-6
646                       2.4125865753686907E-6
647                       2.387714548818498E-6